/*--------------------------------*- C++ -*----------------------------------*\
  =========                 |
  \\      /  F ield         | OpenFOAM: The Open Source CFD Toolbox
   \\    /   O peration     | Website:  https://openfoam.org
    \\  /    A nd           | Version:  13
     \\/     M anipulation  |
\*---------------------------------------------------------------------------*/
FoamFile
{
    format      ascii;
    class       volScalarField;
    location    "0";
    object      yPlus;
}
// * * * * * * * * * * * * * * * * * * * * * * * * * * * * * * * * * * * * * //

dimensions      [];

internalField   uniform 0;

boundaryField
{
    airfoil
    {
        type            calculated;
        value           nonuniform List<scalar> 
500
(
0.011132326
0.01115398
0.011167079
0.01118459
0.011198295
0.011207088
0.011217326
0.011223927
0.011227907
0.011230889
0.011231251
0.011229871
0.011225665
0.011220781
0.011213453
0.011202125
0.011193103
0.011179218
0.011160861
0.01114888
0.011127791
0.011102508
0.011088871
0.011059928
0.011029229
0.011012492
0.010976458
0.010941722
0.010920921
0.010878358
0.010840593
0.010815639
0.010766721
0.010726959
0.010697894
0.010642804
0.01060203
0.010569075
0.010508039
0.010467164
0.010430806
0.010364053
0.010323837
0.010284966
0.010212754
0.010173669
0.010133731
0.010056373
0.010018432
0.0099796971
0.0098974811
0.0098599057
0.0098258736
0.0097391753
0.0096999919
0.0096759859
0.009585192
0.0095403985
0.0095346015
0.0094401684
0.0093823937
0.0094073785
0.00930986
0.009226142
0.0093017483
0.0092017613
0.0090994887
0.009197788
0.0091257454
0.009021837
0.0090826321
0.0090953462
0.0089908442
0.0089572661
0.0091297898
0.0090261291
0.008920225
0.0091239747
0.0091571083
0.0090541654
0.0089489647
0.0094144293
0.0093342136
0.0092354754
0.0091344439
0.0097755997
0.009761339
0.0096738366
0.0095839293
0.0097915359
0.01087383
0.010831988
0.010787445
0.010740215
0.010690308
0.010637736
0.010582512
0.01052465
0.010464163
0.010401067
0.011130938
0.011147191
0.011159731
0.011170911
0.011179436
0.011187004
0.011192972
0.011198148
0.011202361
0.011205908
0.011208832
0.011211261
0.011213288
0.01121492
0.011216269
0.011217337
0.01121822
0.011218891
0.011219418
0.011219787
0.01122006
0.011220226
0.01122032
0.011220346
0.011220312
0.011220249
0.011220155
0.011220028
0.011219879
0.011219726
0.011219558
0.011219398
0.011219222
0.011219061
0.011218903
0.011218767
0.011218635
0.011218518
0.011218419
0.011218336
0.011218271
0.011218228
0.011218197
0.011218196
0.011218215
0.011218262
0.011218325
0.011218399
0.011218508
0.011218637
0.011218795
0.011218974
0.011219153
0.01121906
0.011218935
0.011218811
0.011218701
0.011218621
0.011218543
0.011218501
0.011218447
0.011218427
0.011218423
0.011218449
0.011218457
0.011218509
0.011218556
0.011218651
0.011218722
0.01121885
0.011218967
0.011219117
0.011219276
0.011219461
0.011219645
0.011219857
0.011220077
0.011220311
0.011220558
0.011220815
0.011221098
0.011221385
0.011221693
0.011222011
0.011222343
0.011222672
0.011223029
0.011223393
0.01122377
0.011224141
0.011224551
0.011224957
0.011225369
0.011225793
0.01122623
0.011226675
0.011227118
0.011227573
0.011228039
0.011228509
0.011228984
0.01122947
0.011229947
0.011230436
0.011230935
0.01123145
0.011231956
0.011232473
0.011232989
0.011233496
0.011234014
0.011234535
0.011235065
0.011235593
0.011236119
0.01123665
0.011237182
0.011237708
0.011238249
0.011238774
0.011239296
0.011239828
0.01124036
0.011240889
0.011241414
0.011241933
0.011242459
0.011242988
0.011243499
0.011244016
0.011244525
0.011245044
0.01124555
0.011246048
0.011246548
0.01124704
0.011247528
0.011248002
0.011248488
0.011248957
0.011249425
0.011249886
0.011250345
0.011250789
0.01125123
0.011251672
0.011252095
0.011252528
0.0080555545
0.010775737
0.010804587
0.010839372
0.010871739
0.010898758
0.010924273
0.010946468
0.01096651
0.010985234
0.011001309
0.011017032
0.011030435
0.011043186
0.011054709
0.011065088
0.011075016
0.011083571
0.011092047
0.0110993
0.01110625
0.011112532
0.011118242
0.011123648
0.011128305
0.011132951
0.011136842
0.01114059
0.01114388
0.011146902
0.011149663
0.011152043
0.011154321
0.011156195
0.011157975
0.011159436
0.01116074
0.011161834
0.011162737
0.011163504
0.011164054
0.011164489
0.011164753
0.0111649
0.01116491
0.011164786
0.011164539
0.011164204
0.011163723
0.011163184
0.011162497
0.01116175
0.011160896
0.011159977
0.011159013
0.011158256
0.011157529
0.011156713
0.011155955
0.011155084
0.011154284
0.011153396
0.011152546
0.011151644
0.011150745
0.011149827
0.011148882
0.011147979
0.011146996
0.011146104
0.011145086
0.011144168
0.011143147
0.011142212
0.011141217
0.011140251
0.011139264
0.01113826
0.011137299
0.011136273
0.011135347
0.011134277
0.011133359
0.011132331
0.011131377
0.011130354
0.011129384
0.011128385
0.011127372
0.011126426
0.011125397
0.011124471
0.011123414
0.011122508
0.011121448
0.011120485
0.01111948
0.011118508
0.011117522
0.011116523
0.011115565
0.011114515
0.011113594
0.0111125
0.011111573
0.011110512
0.011109553
0.011108508
0.01110749
0.011106478
0.011105418
0.011104441
0.011103331
0.011102364
0.01110119
0.011100177
0.011099055
0.01109799
0.011096872
0.011095764
0.011094661
0.011093461
0.011092378
0.011091116
0.011090035
0.011088768
0.011087616
0.011086346
0.011085094
0.011083806
0.011082487
0.011081226
0.011079801
0.01107852
0.011076998
0.011075682
0.011074169
0.011072735
0.011071215
0.011069682
0.011068152
0.011066484
0.011064954
0.011063159
0.011061593
0.011059742
0.011058011
0.011056168
0.011054326
0.011052447
0.01105045
0.010781742
0.010995772
0.01102503
0.011051539
0.011075292
0.011096283
0.011114508
0.011129961
0.011142641
0.011152541
0.010540898
0.010449588
0.010510812
0.010569418
0.010287675
0.0101206
0.010194376
0.010265617
0.0099101251
0.0099741483
0.010052845
0.0099181067
0.0098622966
0.0099445165
0.0099013653
0.0098262759
0.0099096304
0.009901491
0.009843644
0.0099265738
0.0099272326
0.0098987018
0.0099800659
0.0099773537
0.0099800126
0.010058954
0.010047797
0.010079127
0.010154964
0.010133885
0.010189512
0.010257316
0.010235517
0.010306105
0.010351017
0.010358718
0.010424803
0.010450628
0.010481054
0.010542283
0.010552638
0.010599756
0.010650654
0.010659213
0.010712472
0.01074565
0.010769608
0.010817205
0.0108364
0.010870544
0.010910861
0.010922191
0.010960545
0.010986869
0.011006205
0.01103832
0.011053923
0.011077013
0.011101555
0.011111682
0.011133634
0.011148166
0.011159891
0.011175178
0.011182471
0.011192394
0.011200278
0.01120401
0.011208492
0.011210034
0.011210085
0.011207645
0.011205172
0.011198741
0.011190874
0.011183232
0.011169577
0.011158612
0.011142954
0.011123073
0.011109251
0.011084212
0.011062229
0.011038933
0.011006802
0.010984558
0.010949735
0.010914939
0.010885135
0.010841546
0.010807387
)
;
    }
    inlet
    {
        type            calculated;
        value           uniform 0;
    }
    outlet
    {
        type            calculated;
        value           uniform 0;
    }
    back
    {
        type            empty;
    }
    front
    {
        type            empty;
    }
}


// ************************************************************************* //
